+ 0.1 0 1 cbr 210 ------- 0 0.0 3.0 0 0
- 0.1 0 1 cbr 210 ------- 0 0.0 3.0 0 0
+ 0.10042 0 1 cbr 210 ------- 0 0.0 3.0 1 1
- 0.10084 0 1 cbr 210 ------- 0 0.0 3.0 1 1
+ 0.10084 0 1 cbr 210 ------- 0 0.0 3.0 2 2
r 0.10094 0 1 cbr 210 ------- 0 0.0 3.0 0 0
+ 0.10094 1 2 cbr 210 ------- 0 0.0 3.0 0 0
- 0.10094 1 2 cbr 210 ------- 0 0.0 3.0 0 0
+ 0.10126 0 1 cbr 210 ------- 0 0.0 3.0 3 3
- 0.10168 0 1 cbr 210 ------- 0 0.0 3.0 2 2
+ 0.10168 0 1 cbr 210 ------- 0 0.0 3.0 4 4
r 0.10178 0 1 cbr 210 ------- 0 0.0 3.0 1 1
+ 0.10178 1 2 cbr 210 ------- 0 0.0 3.0 1 1
- 0.10178 1 2 cbr 210 ------- 0 0.0 3.0 1 1
r 0.10188 1 2 cbr 210 ------- 0 0.0 3.0 0 0
+ 0.10188 2 3 cbr 210 ------- 0 0.0 3.0 0 0
- 0.10188 2 3 cbr 210 ------- 0 0.0 3.0 0 0
+ 0.1021 0 1 cbr 210 ------- 0 0.0 3.0 5 5
- 0.10252 0 1 cbr 210 ------- 0 0.0 3.0 3 3
+ 0.10252 0 1 cbr 210 ------- 0 0.0 3.0 6 6
r 0.10262 0 1 cbr 210 ------- 0 0.0 3.0 2 2
+ 0.10262 1 2 cbr 210 ------- 0 0.0 3.0 2 2
- 0.10262 1 2 cbr 210 ------- 0 0.0 3.0 2 2
r 0.10272 1 2 cbr 210 ------- 0 0.0 3.0 1 1
+ 0.10272 2 3 cbr 210 ------- 0 0.0 3.0 1 1
- 0.10272 2 3 cbr 210 ------- 0 0.0 3.0 1 1
r 0.10282 2 3 cbr 210 ------- 0 0.0 3.0 0 0
+ 0.10294 0 1 cbr 210 ------- 0 0.0 3.0 7 7
- 0.10336 0 1 cbr 210 ------- 0 0.0 3.0 4 4
+ 0.10336 0 1 cbr 210 ------- 0 0.0 3.0 8 8
r 0.10346 0 1 cbr 210 ------- 0 0.0 3.0 3 3
+ 0.10346 1 2 cbr 210 ------- 0 0.0 3.0 3 3
- 0.10346 1 2 cbr 210 ------- 0 0.0 3.0 3 3
r 0.10356 1 2 cbr 210 ------- 0 0.0 3.0 2 2
+ 0.10356 2 3 cbr 210 ------- 0 0.0 3.0 2 2
- 0.10356 2 3 cbr 210 ------- 0 0.0 3.0 2 2
r 0.10366 2 3 cbr 210 ------- 0 0.0 3.0 1 1
+ 0.10378 0 1 cbr 210 ------- 0 0.0 3.0 9 9
- 0.1042 0 1 cbr 210 ------- 0 0.0 3.0 5 5
+ 0.1042 0 1 cbr 210 ------- 0 0.0 3.0 10 10
r 0.1043 0 1 cbr 210 ------- 0 0.0 3.0 4 4
+ 0.1043 1 2 cbr 210 ------- 0 0.0 3.0 4 4
- 0.1043 1 2 cbr 210 ------- 0 0.0 3.0 4 4
r 0.1044 1 2 cbr 210 ------- 0 0.0 3.0 3 3
+ 0.1044 2 3 cbr 210 ------- 0 0.0 3.0 3 3
- 0.1044 2 3 cbr 210 ------- 0 0.0 3.0 3 3
r 0.1045 2 3 cbr 210 ------- 0 0.0 3.0 2 2
+ 0.10462 0 1 cbr 210 ------- 0 0.0 3.0 11 11
- 0.10504 0 1 cbr 210 ------- 0 0.0 3.0 6 6
+ 0.10504 0 1 cbr 210 ------- 0 0.0 3.0 12 12
r 0.10514 0 1 cbr 210 ------- 0 0.0 3.0 5 5
+ 0.10514 1 2 cbr 210 ------- 0 0.0 3.0 5 5
- 0.10514 1 2 cbr 210 ------- 0 0.0 3.0 5 5
r 0.10524 1 2 cbr 210 ------- 0 0.0 3.0 4 4
+ 0.10524 2 3 cbr 210 ------- 0 0.0 3.0 4 4
- 0.10524 2 3 cbr 210 ------- 0 0.0 3.0 4 4
r 0.10534 2 3 cbr 210 ------- 0 0.0 3.0 3 3
+ 0.10546 0 1 cbr 210 ------- 0 0.0 3.0 13 13
- 0.10588 0 1 cbr 210 ------- 0 0.0 3.0 7 7
+ 0.10588 0 1 cbr 210 ------- 0 0.0 3.0 14 14
r 0.10598 0 1 cbr 210 ------- 0 0.0 3.0 6 6
+ 0.10598 1 2 cbr 210 ------- 0 0.0 3.0 6 6
- 0.10598 1 2 cbr 210 ------- 0 0.0 3.0 6 6
r 0.10608 1 2 cbr 210 ------- 0 0.0 3.0 5 5
+ 0.10608 2 3 cbr 210 ------- 0 0.0 3.0 5 5
- 0.10608 2 3 cbr 210 ------- 0 0.0 3.0 5 5
r 0.10618 2 3 cbr 210 ------- 0 0.0 3.0 4 4
+ 0.1063 0 1 cbr 210 ------- 0 0.0 3.0 15 15
- 0.10672 0 1 cbr 210 ------- 0 0.0 3.0 8 8
+ 0.10672 0 1 cbr 210 ------- 0 0.0 3.0 16 16
r 0.10682 0 1 cbr 210 ------- 0 0.0 3.0 7 7
+ 0.10682 1 2 cbr 210 ------- 0 0.0 3.0 7 7
- 0.10682 1 2 cbr 210 ------- 0 0.0 3.0 7 7
r 0.10692 1 2 cbr 210 ------- 0 0.0 3.0 6 6
+ 0.10692 2 3 cbr 210 ------- 0 0.0 3.0 6 6
- 0.10692 2 3 cbr 210 ------- 0 0.0 3.0 6 6
r 0.10702 2 3 cbr 210 ------- 0 0.0 3.0 5 5
+ 0.10714 0 1 cbr 210 ------- 0 0.0 3.0 17 17
- 0.10756 0 1 cbr 210 ------- 0 0.0 3.0 9 9
+ 0.10756 0 1 cbr 210 ------- 0 0.0 3.0 18 18
r 0.10766 0 1 cbr 210 ------- 0 0.0 3.0 8 8
+ 0.10766 1 2 cbr 210 ------- 0 0.0 3.0 8 8
- 0.10766 1 2 cbr 210 ------- 0 0.0 3.0 8 8
r 0.10776 1 2 cbr 210 ------- 0 0.0 3.0 7 7
+ 0.10776 2 3 cbr 210 ------- 0 0.0 3.0 7 7
- 0.10776 2 3 cbr 210 ------- 0 0.0 3.0 7 7
r 0.10786 2 3 cbr 210 ------- 0 0.0 3.0 6 6
+ 0.10798 0 1 cbr 210 ------- 0 0.0 3.0 19 19
- 0.1084 0 1 cbr 210 ------- 0 0.0 3.0 10 10
+ 0.1084 0 1 cbr 210 ------- 0 0.0 3.0 20 20
r 0.1085 0 1 cbr 210 ------- 0 0.0 3.0 9 9
+ 0.1085 1 2 cbr 210 ------- 0 0.0 3.0 9 9
- 0.1085 1 2 cbr 210 ------- 0 0.0 3.0 9 9
r 0.1086 1 2 cbr 210 ------- 0 0.0 3.0 8 8
+ 0.1086 2 3 cbr 210 ------- 0 0.0 3.0 8 8
- 0.1086 2 3 cbr 210 ------- 0 0.0 3.0 8 8
r 0.1087 2 3 cbr 210 ------- 0 0.0 3.0 7 7
+ 0.10882 0 1 cbr 210 ------- 0 0.0 3.0 21 21
- 0.10924 0 1 cbr 210 ------- 0 0.0 3.0 11 11
+ 0.10924 0 1 cbr 210 ------- 0 0.0 3.0 22 22
r 0.10934 0 1 cbr 210 ------- 0 0.0 3.0 10 10
+ 0.10934 1 2 cbr 210 ------- 0 0.0 3.0 10 10
- 0.10934 1 2 cbr 210 ------- 0 0.0 3.0 10 10
r 0.10944 1 2 cbr 210 ------- 0 0.0 3.0 9 9
+ 0.10944 2 3 cbr 210 ------- 0 0.0 3.0 9 9
- 0.10944 2 3 cbr 210 ------- 0 0.0 3.0 9 9
r 0.10954 2 3 cbr 210 ------- 0 0.0 3.0 8 8
+ 0.10966 0 1 cbr 210 ------- 0 0.0 3.0 23 23
- 0.11008 0 1 cbr 210 ------- 0 0.0 3.0 12 12
+ 0.11008 0 1 cbr 210 ------- 0 0.0 3.0 24 24
r 0.11018 0 1 cbr 210 ------- 0 0.0 3.0 11 11
+ 0.11018 1 2 cbr 210 ------- 0 0.0 3.0 11 11
- 0.11018 1 2 cbr 210 ------- 0 0.0 3.0 11 11
r 0.11028 1 2 cbr 210 ------- 0 0.0 3.0 10 10
+ 0.11028 2 3 cbr 210 ------- 0 0.0 3.0 10 10
- 0.11028 2 3 cbr 210 ------- 0 0.0 3.0 10 10
r 0.11038 2 3 cbr 210 ------- 0 0.0 3.0 9 9
+ 0.1105 0 1 cbr 210 ------- 0 0.0 3.0 25 25
- 0.11092 0 1 cbr 210 ------- 0 0.0 3.0 13 13
+ 0.11092 0 1 cbr 210 ------- 0 0.0 3.0 26 26
r 0.11102 0 1 cbr 210 ------- 0 0.0 3.0 12 12
+ 0.11102 1 2 cbr 210 ------- 0 0.0 3.0 12 12
- 0.11102 1 2 cbr 210 ------- 0 0.0 3.0 12 12
r 0.11112 1 2 cbr 210 ------- 0 0.0 3.0 11 11
+ 0.11112 2 3 cbr 210 ------- 0 0.0 3.0 11 11
- 0.11112 2 3 cbr 210 ------- 0 0.0 3.0 11 11
r 0.11122 2 3 cbr 210 ------- 0 0.0 3.0 10 10
+ 0.11134 0 1 cbr 210 ------- 0 0.0 3.0 27 27
- 0.11176 0 1 cbr 210 ------- 0 0.0 3.0 14 14
+ 0.11176 0 1 cbr 210 ------- 0 0.0 3.0 28 28
r 0.11186 0 1 cbr 210 ------- 0 0.0 3.0 13 13
+ 0.11186 1 2 cbr 210 ------- 0 0.0 3.0 13 13
- 0.11186 1 2 cbr 210 ------- 0 0.0 3.0 13 13
r 0.11196 1 2 cbr 210 ------- 0 0.0 3.0 12 12
+ 0.11196 2 3 cbr 210 ------- 0 0.0 3.0 12 12
- 0.11196 2 3 cbr 210 ------- 0 0.0 3.0 12 12
r 0.11206 2 3 cbr 210 ------- 0 0.0 3.0 11 11
+ 0.11218 0 1 cbr 210 ------- 0 0.0 3.0 29 29
- 0.1126 0 1 cbr 210 ------- 0 0.0 3.0 15 15
+ 0.1126 0 1 cbr 210 ------- 0 0.0 3.0 30 30
r 0.1127 0 1 cbr 210 ------- 0 0.0 3.0 14 14
+ 0.1127 1 2 cbr 210 ------- 0 0.0 3.0 14 14
- 0.1127 1 2 cbr 210 ------- 0 0.0 3.0 14 14
r 0.1128 1 2 cbr 210 ------- 0 0.0 3.0 13 13
+ 0.1128 2 3 cbr 210 ------- 0 0.0 3.0 13 13
- 0.1128 2 3 cbr 210 ------- 0 0.0 3.0 13 13
r 0.1129 2 3 cbr 210 ------- 0 0.0 3.0 12 12
+ 0.11302 0 1 cbr 210 ------- 0 0.0 3.0 31 31
- 0.11344 0 1 cbr 210 ------- 0 0.0 3.0 16 16
+ 0.11344 0 1 cbr 210 ------- 0 0.0 3.0 32 32
r 0.11354 0 1 cbr 210 ------- 0 0.0 3.0 15 15
+ 0.11354 1 2 cbr 210 ------- 0 0.0 3.0 15 15
- 0.11354 1 2 cbr 210 ------- 0 0.0 3.0 15 15
r 0.11364 1 2 cbr 210 ------- 0 0.0 3.0 14 14
+ 0.11364 2 3 cbr 210 ------- 0 0.0 3.0 14 14
- 0.11364 2 3 cbr 210 ------- 0 0.0 3.0 14 14
r 0.11374 2 3 cbr 210 ------- 0 0.0 3.0 13 13
+ 0.11386 0 1 cbr 210 ------- 0 0.0 3.0 33 33
- 0.11428 0 1 cbr 210 ------- 0 0.0 3.0 17 17
+ 0.11428 0 1 cbr 210 ------- 0 0.0 3.0 34 34
r 0.11438 0 1 cbr 210 ------- 0 0.0 3.0 16 16
+ 0.11438 1 2 cbr 210 ------- 0 0.0 3.0 16 16
- 0.11438 1 2 cbr 210 ------- 0 0.0 3.0 16 16
r 0.11448 1 2 cbr 210 ------- 0 0.0 3.0 15 15
+ 0.11448 2 3 cbr 210 ------- 0 0.0 3.0 15 15
- 0.11448 2 3 cbr 210 ------- 0 0.0 3.0 15 15
r 0.11458 2 3 cbr 210 ------- 0 0.0 3.0 14 14
+ 0.1147 0 1 cbr 210 ------- 0 0.0 3.0 35 35
- 0.11512 0 1 cbr 210 ------- 0 0.0 3.0 18 18
+ 0.11512 0 1 cbr 210 ------- 0 0.0 3.0 36 36
r 0.11522 0 1 cbr 210 ------- 0 0.0 3.0 17 17
+ 0.11522 1 2 cbr 210 ------- 0 0.0 3.0 17 17
- 0.11522 1 2 cbr 210 ------- 0 0.0 3.0 17 17
r 0.11532 1 2 cbr 210 ------- 0 0.0 3.0 16 16
+ 0.11532 2 3 cbr 210 ------- 0 0.0 3.0 16 16
- 0.11532 2 3 cbr 210 ------- 0 0.0 3.0 16 16
r 0.11542 2 3 cbr 210 ------- 0 0.0 3.0 15 15
+ 0.11554 0 1 cbr 210 ------- 0 0.0 3.0 37 37
- 0.11596 0 1 cbr 210 ------- 0 0.0 3.0 19 19
+ 0.11596 0 1 cbr 210 ------- 0 0.0 3.0 38 38
r 0.11606 0 1 cbr 210 ------- 0 0.0 3.0 18 18
+ 0.11606 1 2 cbr 210 ------- 0 0.0 3.0 18 18
- 0.11606 1 2 cbr 210 ------- 0 0.0 3.0 18 18
r 0.11616 1 2 cbr 210 ------- 0 0.0 3.0 17 17
+ 0.11616 2 3 cbr 210 ------- 0 0.0 3.0 17 17
- 0.11616 2 3 cbr 210 ------- 0 0.0 3.0 17 17
r 0.11626 2 3 cbr 210 ------- 0 0.0 3.0 16 16
+ 0.11638 0 1 cbr 210 ------- 0 0.0 3.0 39 39
- 0.1168 0 1 cbr 210 ------- 0 0.0 3.0 20 20
+ 0.1168 0 1 cbr 210 ------- 0 0.0 3.0 40 40
r 0.1169 0 1 cbr 210 ------- 0 0.0 3.0 19 19
+ 0.1169 1 2 cbr 210 ------- 0 0.0 3.0 19 19
- 0.1169 1 2 cbr 210 ------- 0 0.0 3.0 19 19
r 0.117 1 2 cbr 210 ------- 0 0.0 3.0 18 18
+ 0.117 2 3 cbr 210 ------- 0 0.0 3.0 18 18
- 0.117 2 3 cbr 210 ------- 0 0.0 3.0 18 18
r 0.1171 2 3 cbr 210 ------- 0 0.0 3.0 17 17
+ 0.11722 0 1 cbr 210 ------- 0 0.0 3.0 41 41
- 0.11764 0 1 cbr 210 ------- 0 0.0 3.0 21 21
+ 0.11764 0 1 cbr 210 ------- 0 0.0 3.0 42 42
r 0.11774 0 1 cbr 210 ------- 0 0.0 3.0 20 20
+ 0.11774 1 2 cbr 210 ------- 0 0.0 3.0 20 20
- 0.11774 1 2 cbr 210 ------- 0 0.0 3.0 20 20
r 0.11784 1 2 cbr 210 ------- 0 0.0 3.0 19 19
+ 0.11784 2 3 cbr 210 ------- 0 0.0 3.0 19 19
- 0.11784 2 3 cbr 210 ------- 0 0.0 3.0 19 19
r 0.11794 2 3 cbr 210 ------- 0 0.0 3.0 18 18
+ 0.11806 0 1 cbr 210 ------- 0 0.0 3.0 43 43
- 0.11848 0 1 cbr 210 ------- 0 0.0 3.0 22 22
+ 0.11848 0 1 cbr 210 ------- 0 0.0 3.0 44 44
r 0.11858 0 1 cbr 210 ------- 0 0.0 3.0 21 21
+ 0.11858 1 2 cbr 210 ------- 0 0.0 3.0 21 21
- 0.11858 1 2 cbr 210 ------- 0 0.0 3.0 21 21
r 0.11868 1 2 cbr 210 ------- 0 0.0 3.0 20 20
+ 0.11868 2 3 cbr 210 ------- 0 0.0 3.0 20 20
- 0.11868 2 3 cbr 210 ------- 0 0.0 3.0 20 20
r 0.11878 2 3 cbr 210 ------- 0 0.0 3.0 19 19
+ 0.1189 0 1 cbr 210 ------- 0 0.0 3.0 45 45
- 0.11932 0 1 cbr 210 ------- 0 0.0 3.0 23 23
+ 0.11932 0 1 cbr 210 ------- 0 0.0 3.0 46 46
r 0.11942 0 1 cbr 210 ------- 0 0.0 3.0 22 22
+ 0.11942 1 2 cbr 210 ------- 0 0.0 3.0 22 22
- 0.11942 1 2 cbr 210 ------- 0 0.0 3.0 22 22
r 0.11952 1 2 cbr 210 ------- 0 0.0 3.0 21 21
+ 0.11952 2 3 cbr 210 ------- 0 0.0 3.0 21 21
- 0.11952 2 3 cbr 210 ------- 0 0.0 3.0 21 21
r 0.11962 2 3 cbr 210 ------- 0 0.0 3.0 20 20
+ 0.11974 0 1 cbr 210 ------- 0 0.0 3.0 47 47
- 0.12016 0 1 cbr 210 ------- 0 0.0 3.0 24 24
+ 0.12016 0 1 cbr 210 ------- 0 0.0 3.0 48 48
r 0.12026 0 1 cbr 210 ------- 0 0.0 3.0 23 23
+ 0.12026 1 2 cbr 210 ------- 0 0.0 3.0 23 23
- 0.12026 1 2 cbr 210 ------- 0 0.0 3.0 23 23
r 0.12036 1 2 cbr 210 ------- 0 0.0 3.0 22 22
+ 0.12036 2 3 cbr 210 ------- 0 0.0 3.0 22 22
- 0.12036 2 3 cbr 210 ------- 0 0.0 3.0 22 22
r 0.12046 2 3 cbr 210 ------- 0 0.0 3.0 21 21
+ 0.12058 0 1 cbr 210 ------- 0 0.0 3.0 49 49
- 0.121 0 1 cbr 210 ------- 0 0.0 3.0 25 25
+ 0.121 0 1 cbr 210 ------- 0 0.0 3.0 50 50
r 0.1211 0 1 cbr 210 ------- 0 0.0 3.0 24 24
+ 0.1211 1 2 cbr 210 ------- 0 0.0 3.0 24 24
- 0.1211 1 2 cbr 210 ------- 0 0.0 3.0 24 24
r 0.1212 1 2 cbr 210 ------- 0 0.0 3.0 23 23
+ 0.1212 2 3 cbr 210 ------- 0 0.0 3.0 23 23
- 0.1212 2 3 cbr 210 ------- 0 0.0 3.0 23 23
r 0.1213 2 3 cbr 210 ------- 0 0.0 3.0 22 22
+ 0.12142 0 1 cbr 210 ------- 0 0.0 3.0 51 51
- 0.12184 0 1 cbr 210 ------- 0 0.0 3.0 26 26
+ 0.12184 0 1 cbr 210 ------- 0 0.0 3.0 52 52
r 0.12194 0 1 cbr 210 ------- 0 0.0 3.0 25 25
+ 0.12194 1 2 cbr 210 ------- 0 0.0 3.0 25 25
- 0.12194 1 2 cbr 210 ------- 0 0.0 3.0 25 25
r 0.12204 1 2 cbr 210 ------- 0 0.0 3.0 24 24
+ 0.12204 2 3 cbr 210 ------- 0 0.0 3.0 24 24
- 0.12204 2 3 cbr 210 ------- 0 0.0 3.0 24 24
r 0.12214 2 3 cbr 210 ------- 0 0.0 3.0 23 23
+ 0.12226 0 1 cbr 210 ------- 0 0.0 3.0 53 53
- 0.12268 0 1 cbr 210 ------- 0 0.0 3.0 27 27
+ 0.12268 0 1 cbr 210 ------- 0 0.0 3.0 54 54
r 0.12278 0 1 cbr 210 ------- 0 0.0 3.0 26 26
+ 0.12278 1 2 cbr 210 ------- 0 0.0 3.0 26 26
- 0.12278 1 2 cbr 210 ------- 0 0.0 3.0 26 26
r 0.12288 1 2 cbr 210 ------- 0 0.0 3.0 25 25
+ 0.12288 2 3 cbr 210 ------- 0 0.0 3.0 25 25
- 0.12288 2 3 cbr 210 ------- 0 0.0 3.0 25 25
r 0.12298 2 3 cbr 210 ------- 0 0.0 3.0 24 24
+ 0.1231 0 1 cbr 210 ------- 0 0.0 3.0 55 55
- 0.12352 0 1 cbr 210 ------- 0 0.0 3.0 28 28
+ 0.12352 0 1 cbr 210 ------- 0 0.0 3.0 56 56
r 0.12362 0 1 cbr 210 ------- 0 0.0 3.0 27 27
+ 0.12362 1 2 cbr 210 ------- 0 0.0 3.0 27 27
- 0.12362 1 2 cbr 210 ------- 0 0.0 3.0 27 27
r 0.12372 1 2 cbr 210 ------- 0 0.0 3.0 26 26
+ 0.12372 2 3 cbr 210 ------- 0 0.0 3.0 26 26
- 0.12372 2 3 cbr 210 ------- 0 0.0 3.0 26 26
r 0.12382 2 3 cbr 210 ------- 0 0.0 3.0 25 25
+ 0.12394 0 1 cbr 210 ------- 0 0.0 3.0 57 57
- 0.12436 0 1 cbr 210 ------- 0 0.0 3.0 29 29
+ 0.12436 0 1 cbr 210 ------- 0 0.0 3.0 58 58
r 0.12446 0 1 cbr 210 ------- 0 0.0 3.0 28 28
+ 0.12446 1 2 cbr 210 ------- 0 0.0 3.0 28 28
- 0.12446 1 2 cbr 210 ------- 0 0.0 3.0 28 28
r 0.12456 1 2 cbr 210 ------- 0 0.0 3.0 27 27
+ 0.12456 2 3 cbr 210 ------- 0 0.0 3.0 27 27
- 0.12456 2 3 cbr 210 ------- 0 0.0 3.0 27 27
r 0.12466 2 3 cbr 210 ------- 0 0.0 3.0 26 26
+ 0.12478 0 1 cbr 210 ------- 0 0.0 3.0 59 59
- 0.1252 0 1 cbr 210 ------- 0 0.0 3.0 30 30
+ 0.1252 0 1 cbr 210 ------- 0 0.0 3.0 60 60
r 0.1253 0 1 cbr 210 ------- 0 0.0 3.0 29 29
+ 0.1253 1 2 cbr 210 ------- 0 0.0 3.0 29 29
- 0.1253 1 2 cbr 210 ------- 0 0.0 3.0 29 29
r 0.1254 1 2 cbr 210 ------- 0 0.0 3.0 28 28
+ 0.1254 2 3 cbr 210 ------- 0 0.0 3.0 28 28
- 0.1254 2 3 cbr 210 ------- 0 0.0 3.0 28 28
r 0.1255 2 3 cbr 210 ------- 0 0.0 3.0 27 27
+ 0.12562 0 1 cbr 210 ------- 0 0.0 3.0 61 61
- 0.12604 0 1 cbr 210 ------- 0 0.0 3.0 31 31
+ 0.12604 0 1 cbr 210 ------- 0 0.0 3.0 62 62
r 0.12614 0 1 cbr 210 ------- 0 0.0 3.0 30 30
+ 0.12614 1 2 cbr 210 ------- 0 0.0 3.0 30 30
- 0.12614 1 2 cbr 210 ------- 0 0.0 3.0 30 30
r 0.12624 1 2 cbr 210 ------- 0 0.0 3.0 29 29
+ 0.12624 2 3 cbr 210 ------- 0 0.0 3.0 29 29
- 0.12624 2 3 cbr 210 ------- 0 0.0 3.0 29 29
r 0.12634 2 3 cbr 210 ------- 0 0.0 3.0 28 28
+ 0.12646 0 1 cbr 210 ------- 0 0.0 3.0 63 63
- 0.12688 0 1 cbr 210 ------- 0 0.0 3.0 32 32
+ 0.12688 0 1 cbr 210 ------- 0 0.0 3.0 64 64
r 0.12698 0 1 cbr 210 ------- 0 0.0 3.0 31 31
+ 0.12698 1 2 cbr 210 ------- 0 0.0 3.0 31 31
- 0.12698 1 2 cbr 210 ------- 0 0.0 3.0 31 31
r 0.12708 1 2 cbr 210 ------- 0 0.0 3.0 30 30
+ 0.12708 2 3 cbr 210 ------- 0 0.0 3.0 30 30
- 0.12708 2 3 cbr 210 ------- 0 0.0 3.0 30 30
r 0.12718 2 3 cbr 210 ------- 0 0.0 3.0 29 29
+ 0.1273 0 1 cbr 210 ------- 0 0.0 3.0 65 65
- 0.12772 0 1 cbr 210 ------- 0 0.0 3.0 33 33
+ 0.12772 0 1 cbr 210 ------- 0 0.0 3.0 66 66
r 0.12782 0 1 cbr 210 ------- 0 0.0 3.0 32 32
+ 0.12782 1 2 cbr 210 ------- 0 0.0 3.0 32 32
- 0.12782 1 2 cbr 210 ------- 0 0.0 3.0 32 32
r 0.12792 1 2 cbr 210 ------- 0 0.0 3.0 31 31
+ 0.12792 2 3 cbr 210 ------- 0 0.0 3.0 31 31
- 0.12792 2 3 cbr 210 ------- 0 0.0 3.0 31 31
r 0.12802 2 3 cbr 210 ------- 0 0.0 3.0 30 30
+ 0.12814 0 1 cbr 210 ------- 0 0.0 3.0 67 67
- 0.12856 0 1 cbr 210 ------- 0 0.0 3.0 34 34
+ 0.12856 0 1 cbr 210 ------- 0 0.0 3.0 68 68
r 0.12866 0 1 cbr 210 ------- 0 0.0 3.0 33 33
+ 0.12866 1 2 cbr 210 ------- 0 0.0 3.0 33 33
- 0.12866 1 2 cbr 210 ------- 0 0.0 3.0 33 33
r 0.12876 1 2 cbr 210 ------- 0 0.0 3.0 32 32
+ 0.12876 2 3 cbr 210 ------- 0 0.0 3.0 32 32
- 0.12876 2 3 cbr 210 ------- 0 0.0 3.0 32 32
r 0.12886 2 3 cbr 210 ------- 0 0.0 3.0 31 31
+ 0.12898 0 1 cbr 210 ------- 0 0.0 3.0 69 69
- 0.1294 0 1 cbr 210 ------- 0 0.0 3.0 35 35
+ 0.1294 0 1 cbr 210 ------- 0 0.0 3.0 70 70
r 0.1295 0 1 cbr 210 ------- 0 0.0 3.0 34 34
+ 0.1295 1 2 cbr 210 ------- 0 0.0 3.0 34 34
- 0.1295 1 2 cbr 210 ------- 0 0.0 3.0 34 34
r 0.1296 1 2 cbr 210 ------- 0 0.0 3.0 33 33
+ 0.1296 2 3 cbr 210 ------- 0 0.0 3.0 33 33
- 0.1296 2 3 cbr 210 ------- 0 0.0 3.0 33 33
r 0.1297 2 3 cbr 210 ------- 0 0.0 3.0 32 32
+ 0.12982 0 1 cbr 210 ------- 0 0.0 3.0 71 71
- 0.13024 0 1 cbr 210 ------- 0 0.0 3.0 36 36
+ 0.13024 0 1 cbr 210 ------- 0 0.0 3.0 72 72
r 0.13034 0 1 cbr 210 ------- 0 0.0 3.0 35 35
+ 0.13034 1 2 cbr 210 ------- 0 0.0 3.0 35 35
- 0.13034 1 2 cbr 210 ------- 0 0.0 3.0 35 35
r 0.13044 1 2 cbr 210 ------- 0 0.0 3.0 34 34
+ 0.13044 2 3 cbr 210 ------- 0 0.0 3.0 34 34
- 0.13044 2 3 cbr 210 ------- 0 0.0 3.0 34 34
r 0.13054 2 3 cbr 210 ------- 0 0.0 3.0 33 33
+ 0.13066 0 1 cbr 210 ------- 0 0.0 3.0 73 73
- 0.13108 0 1 cbr 210 ------- 0 0.0 3.0 37 37
+ 0.13108 0 1 cbr 210 ------- 0 0.0 3.0 74 74
r 0.13118 0 1 cbr 210 ------- 0 0.0 3.0 36 36
+ 0.13118 1 2 cbr 210 ------- 0 0.0 3.0 36 36
- 0.13118 1 2 cbr 210 ------- 0 0.0 3.0 36 36
r 0.13128 1 2 cbr 210 ------- 0 0.0 3.0 35 35
+ 0.13128 2 3 cbr 210 ------- 0 0.0 3.0 35 35
- 0.13128 2 3 cbr 210 ------- 0 0.0 3.0 35 35
r 0.13138 2 3 cbr 210 ------- 0 0.0 3.0 34 34
+ 0.1315 0 1 cbr 210 ------- 0 0.0 3.0 75 75
- 0.13192 0 1 cbr 210 ------- 0 0.0 3.0 38 38
+ 0.13192 0 1 cbr 210 ------- 0 0.0 3.0 76 76
r 0.13202 0 1 cbr 210 ------- 0 0.0 3.0 37 37
+ 0.13202 1 2 cbr 210 ------- 0 0.0 3.0 37 37
- 0.13202 1 2 cbr 210 ------- 0 0.0 3.0 37 37
r 0.13212 1 2 cbr 210 ------- 0 0.0 3.0 36 36
+ 0.13212 2 3 cbr 210 ------- 0 0.0 3.0 36 36
- 0.13212 2 3 cbr 210 ------- 0 0.0 3.0 36 36
r 0.13222 2 3 cbr 210 ------- 0 0.0 3.0 35 35
+ 0.13234 0 1 cbr 210 ------- 0 0.0 3.0 77 77
- 0.13276 0 1 cbr 210 ------- 0 0.0 3.0 39 39
+ 0.13276 0 1 cbr 210 ------- 0 0.0 3.0 78 78
r 0.13286 0 1 cbr 210 ------- 0 0.0 3.0 38 38
+ 0.13286 1 2 cbr 210 ------- 0 0.0 3.0 38 38
- 0.13286 1 2 cbr 210 ------- 0 0.0 3.0 38 38
r 0.13296 1 2 cbr 210 ------- 0 0.0 3.0 37 37
+ 0.13296 2 3 cbr 210 ------- 0 0.0 3.0 37 37
- 0.13296 2 3 cbr 210 ------- 0 0.0 3.0 37 37
r 0.13306 2 3 cbr 210 ------- 0 0.0 3.0 36 36
+ 0.13318 0 1 cbr 210 ------- 0 0.0 3.0 79 79
- 0.1336 0 1 cbr 210 ------- 0 0.0 3.0 40 40
+ 0.1336 0 1 cbr 210 ------- 0 0.0 3.0 80 80
r 0.1337 0 1 cbr 210 ------- 0 0.0 3.0 39 39
+ 0.1337 1 2 cbr 210 ------- 0 0.0 3.0 39 39
- 0.1337 1 2 cbr 210 ------- 0 0.0 3.0 39 39
r 0.1338 1 2 cbr 210 ------- 0 0.0 3.0 38 38
+ 0.1338 2 3 cbr 210 ------- 0 0.0 3.0 38 38
- 0.1338 2 3 cbr 210 ------- 0 0.0 3.0 38 38
r 0.1339 2 3 cbr 210 ------- 0 0.0 3.0 37 37
+ 0.13402 0 1 cbr 210 ------- 0 0.0 3.0 81 81
- 0.13444 0 1 cbr 210 ------- 0 0.0 3.0 41 41
+ 0.13444 0 1 cbr 210 ------- 0 0.0 3.0 82 82
r 0.13454 0 1 cbr 210 ------- 0 0.0 3.0 40 40
+ 0.13454 1 2 cbr 210 ------- 0 0.0 3.0 40 40
- 0.13454 1 2 cbr 210 ------- 0 0.0 3.0 40 40
r 0.13464 1 2 cbr 210 ------- 0 0.0 3.0 39 39
+ 0.13464 2 3 cbr 210 ------- 0 0.0 3.0 39 39
- 0.13464 2 3 cbr 210 ------- 0 0.0 3.0 39 39
r 0.13474 2 3 cbr 210 ------- 0 0.0 3.0 38 38
+ 0.13486 0 1 cbr 210 ------- 0 0.0 3.0 83 83
- 0.13528 0 1 cbr 210 ------- 0 0.0 3.0 42 42
+ 0.13528 0 1 cbr 210 ------- 0 0.0 3.0 84 84
r 0.13538 0 1 cbr 210 ------- 0 0.0 3.0 41 41
+ 0.13538 1 2 cbr 210 ------- 0 0.0 3.0 41 41
- 0.13538 1 2 cbr 210 ------- 0 0.0 3.0 41 41
r 0.13548 1 2 cbr 210 ------- 0 0.0 3.0 40 40
+ 0.13548 2 3 cbr 210 ------- 0 0.0 3.0 40 40
- 0.13548 2 3 cbr 210 ------- 0 0.0 3.0 40 40
r 0.13558 2 3 cbr 210 ------- 0 0.0 3.0 39 39
+ 0.1357 0 1 cbr 210 ------- 0 0.0 3.0 85 85
- 0.13612 0 1 cbr 210 ------- 0 0.0 3.0 43 43
+ 0.13612 0 1 cbr 210 ------- 0 0.0 3.0 86 86
r 0.13622 0 1 cbr 210 ------- 0 0.0 3.0 42 42
+ 0.13622 1 2 cbr 210 ------- 0 0.0 3.0 42 42
- 0.13622 1 2 cbr 210 ------- 0 0.0 3.0 42 42
r 0.13632 1 2 cbr 210 ------- 0 0.0 3.0 41 41
+ 0.13632 2 3 cbr 210 ------- 0 0.0 3.0 41 41
- 0.13632 2 3 cbr 210 ------- 0 0.0 3.0 41 41
r 0.13642 2 3 cbr 210 ------- 0 0.0 3.0 40 40
+ 0.13654 0 1 cbr 210 ------- 0 0.0 3.0 87 87
- 0.13696 0 1 cbr 210 ------- 0 0.0 3.0 44 44
+ 0.13696 0 1 cbr 210 ------- 0 0.0 3.0 88 88
r 0.13706 0 1 cbr 210 ------- 0 0.0 3.0 43 43
+ 0.13706 1 2 cbr 210 ------- 0 0.0 3.0 43 43
- 0.13706 1 2 cbr 210 ------- 0 0.0 3.0 43 43
r 0.13716 1 2 cbr 210 ------- 0 0.0 3.0 42 42
+ 0.13716 2 3 cbr 210 ------- 0 0.0 3.0 42 42
- 0.13716 2 3 cbr 210 ------- 0 0.0 3.0 42 42
r 0.13726 2 3 cbr 210 ------- 0 0.0 3.0 41 41
+ 0.13738 0 1 cbr 210 ------- 0 0.0 3.0 89 89
- 0.1378 0 1 cbr 210 ------- 0 0.0 3.0 45 45
+ 0.1378 0 1 cbr 210 ------- 0 0.0 3.0 90 90
r 0.1379 0 1 cbr 210 ------- 0 0.0 3.0 44 44
+ 0.1379 1 2 cbr 210 ------- 0 0.0 3.0 44 44
- 0.1379 1 2 cbr 210 ------- 0 0.0 3.0 44 44
r 0.138 1 2 cbr 210 ------- 0 0.0 3.0 43 43
+ 0.138 2 3 cbr 210 ------- 0 0.0 3.0 43 43
- 0.138 2 3 cbr 210 ------- 0 0.0 3.0 43 43
r 0.1381 2 3 cbr 210 ------- 0 0.0 3.0 42 42
+ 0.13822 0 1 cbr 210 ------- 0 0.0 3.0 91 91
- 0.13864 0 1 cbr 210 ------- 0 0.0 3.0 46 46
+ 0.13864 0 1 cbr 210 ------- 0 0.0 3.0 92 92
r 0.13874 0 1 cbr 210 ------- 0 0.0 3.0 45 45
+ 0.13874 1 2 cbr 210 ------- 0 0.0 3.0 45 45
- 0.13874 1 2 cbr 210 ------- 0 0.0 3.0 45 45
r 0.13884 1 2 cbr 210 ------- 0 0.0 3.0 44 44
+ 0.13884 2 3 cbr 210 ------- 0 0.0 3.0 44 44
- 0.13884 2 3 cbr 210 ------- 0 0.0 3.0 44 44
r 0.13894 2 3 cbr 210 ------- 0 0.0 3.0 43 43
+ 0.13906 0 1 cbr 210 ------- 0 0.0 3.0 93 93
- 0.13948 0 1 cbr 210 ------- 0 0.0 3.0 47 47
+ 0.13948 0 1 cbr 210 ------- 0 0.0 3.0 94 94
r 0.13958 0 1 cbr 210 ------- 0 0.0 3.0 46 46
+ 0.13958 1 2 cbr 210 ------- 0 0.0 3.0 46 46
- 0.13958 1 2 cbr 210 ------- 0 0.0 3.0 46 46
r 0.13968 1 2 cbr 210 ------- 0 0.0 3.0 45 45
+ 0.13968 2 3 cbr 210 ------- 0 0.0 3.0 45 45
- 0.13968 2 3 cbr 210 ------- 0 0.0 3.0 45 45
r 0.13978 2 3 cbr 210 ------- 0 0.0 3.0 44 44
+ 0.1399 0 1 cbr 210 ------- 0 0.0 3.0 95 95
- 0.14032 0 1 cbr 210 ------- 0 0.0 3.0 48 48
+ 0.14032 0 1 cbr 210 ------- 0 0.0 3.0 96 96
r 0.14042 0 1 cbr 210 ------- 0 0.0 3.0 47 47
+ 0.14042 1 2 cbr 210 ------- 0 0.0 3.0 47 47
- 0.14042 1 2 cbr 210 ------- 0 0.0 3.0 47 47
r 0.14052 1 2 cbr 210 ------- 0 0.0 3.0 46 46
+ 0.14052 2 3 cbr 210 ------- 0 0.0 3.0 46 46
- 0.14052 2 3 cbr 210 ------- 0 0.0 3.0 46 46
r 0.14062 2 3 cbr 210 ------- 0 0.0 3.0 45 45
+ 0.14074 0 1 cbr 210 ------- 0 0.0 3.0 97 97
- 0.14116 0 1 cbr 210 ------- 0 0.0 3.0 49 49
+ 0.14116 0 1 cbr 210 ------- 0 0.0 3.0 98 98
r 0.14126 0 1 cbr 210 ------- 0 0.0 3.0 48 48
+ 0.14126 1 2 cbr 210 ------- 0 0.0 3.0 48 48
- 0.14126 1 2 cbr 210 ------- 0 0.0 3.0 48 48
r 0.14136 1 2 cbr 210 ------- 0 0.0 3.0 47 47
+ 0.14136 2 3 cbr 210 ------- 0 0.0 3.0 47 47
- 0.14136 2 3 cbr 210 ------- 0 0.0 3.0 47 47
r 0.14146 2 3 cbr 210 ------- 0 0.0 3.0 46 46
+ 0.14158 0 1 cbr 210 ------- 0 0.0 3.0 99 99
d 0.14158 0 1 cbr 210 ------- 0 0.0 3.0 99 99
- 0.142 0 1 cbr 210 ------- 0 0.0 3.0 50 50
+ 0.142 0 1 cbr 210 ------- 0 0.0 3.0 100 100
r 0.1421 0 1 cbr 210 ------- 0 0.0 3.0 49 49
+ 0.1421 1 2 cbr 210 ------- 0 0.0 3.0 49 49
- 0.1421 1 2 cbr 210 ------- 0 0.0 3.0 49 49
r 0.1422 1 2 cbr 210 ------- 0 0.0 3.0 48 48
+ 0.1422 2 3 cbr 210 ------- 0 0.0 3.0 48 48
- 0.1422 2 3 cbr 210 ------- 0 0.0 3.0 48 48
r 0.1423 2 3 cbr 210 ------- 0 0.0 3.0 47 47
+ 0.14242 0 1 cbr 210 ------- 0 0.0 3.0 101 101
d 0.14242 0 1 cbr 210 ------- 0 0.0 3.0 101 101
- 0.14284 0 1 cbr 210 ------- 0 0.0 3.0 51 51
+ 0.14284 0 1 cbr 210 ------- 0 0.0 3.0 102 102
r 0.14294 0 1 cbr 210 ------- 0 0.0 3.0 50 50
+ 0.14294 1 2 cbr 210 ------- 0 0.0 3.0 50 50
- 0.14294 1 2 cbr 210 ------- 0 0.0 3.0 50 50
r 0.14304 1 2 cbr 210 ------- 0 0.0 3.0 49 49
+ 0.14304 2 3 cbr 210 ------- 0 0.0 3.0 49 49
- 0.14304 2 3 cbr 210 ------- 0 0.0 3.0 49 49
r 0.14314 2 3 cbr 210 ------- 0 0.0 3.0 48 48
+ 0.14326 0 1 cbr 210 ------- 0 0.0 3.0 103 103
d 0.14326 0 1 cbr 210 ------- 0 0.0 3.0 103 103
- 0.14368 0 1 cbr 210 ------- 0 0.0 3.0 52 52
+ 0.14368 0 1 cbr 210 ------- 0 0.0 3.0 104 104
r 0.14378 0 1 cbr 210 ------- 0 0.0 3.0 51 51
+ 0.14378 1 2 cbr 210 ------- 0 0.0 3.0 51 51
- 0.14378 1 2 cbr 210 ------- 0 0.0 3.0 51 51
r 0.14388 1 2 cbr 210 ------- 0 0.0 3.0 50 50
+ 0.14388 2 3 cbr 210 ------- 0 0.0 3.0 50 50
- 0.14388 2 3 cbr 210 ------- 0 0.0 3.0 50 50
r 0.14398 2 3 cbr 210 ------- 0 0.0 3.0 49 49
+ 0.1441 0 1 cbr 210 ------- 0 0.0 3.0 105 105
d 0.1441 0 1 cbr 210 ------- 0 0.0 3.0 105 105
- 0.14452 0 1 cbr 210 ------- 0 0.0 3.0 53 53
+ 0.14452 0 1 cbr 210 ------- 0 0.0 3.0 106 106
r 0.14462 0 1 cbr 210 ------- 0 0.0 3.0 52 52
+ 0.14462 1 2 cbr 210 ------- 0 0.0 3.0 52 52
- 0.14462 1 2 cbr 210 ------- 0 0.0 3.0 52 52
r 0.14472 1 2 cbr 210 ------- 0 0.0 3.0 51 51
+ 0.14472 2 3 cbr 210 ------- 0 0.0 3.0 51 51
- 0.14472 2 3 cbr 210 ------- 0 0.0 3.0 51 51
r 0.14482 2 3 cbr 210 ------- 0 0.0 3.0 50 50
+ 0.14494 0 1 cbr 210 ------- 0 0.0 3.0 107 107
d 0.14494 0 1 cbr 210 ------- 0 0.0 3.0 107 107
- 0.14536 0 1 cbr 210 ------- 0 0.0 3.0 54 54
+ 0.14536 0 1 cbr 210 ------- 0 0.0 3.0 108 108
r 0.14546 0 1 cbr 210 ------- 0 0.0 3.0 53 53
+ 0.14546 1 2 cbr 210 ------- 0 0.0 3.0 53 53
- 0.14546 1 2 cbr 210 ------- 0 0.0 3.0 53 53
r 0.14556 1 2 cbr 210 ------- 0 0.0 3.0 52 52
+ 0.14556 2 3 cbr 210 ------- 0 0.0 3.0 52 52
- 0.14556 2 3 cbr 210 ------- 0 0.0 3.0 52 52
r 0.14566 2 3 cbr 210 ------- 0 0.0 3.0 51 51
+ 0.14578 0 1 cbr 210 ------- 0 0.0 3.0 109 109
d 0.14578 0 1 cbr 210 ------- 0 0.0 3.0 109 109
- 0.1462 0 1 cbr 210 ------- 0 0.0 3.0 55 55
+ 0.1462 0 1 cbr 210 ------- 0 0.0 3.0 110 110
r 0.1463 0 1 cbr 210 ------- 0 0.0 3.0 54 54
+ 0.1463 1 2 cbr 210 ------- 0 0.0 3.0 54 54
- 0.1463 1 2 cbr 210 ------- 0 0.0 3.0 54 54
r 0.1464 1 2 cbr 210 ------- 0 0.0 3.0 53 53
+ 0.1464 2 3 cbr 210 ------- 0 0.0 3.0 53 53
- 0.1464 2 3 cbr 210 ------- 0 0.0 3.0 53 53
r 0.1465 2 3 cbr 210 ------- 0 0.0 3.0 52 52
+ 0.14662 0 1 cbr 210 ------- 0 0.0 3.0 111 111
d 0.14662 0 1 cbr 210 ------- 0 0.0 3.0 111 111
- 0.14704 0 1 cbr 210 ------- 0 0.0 3.0 56 56
+ 0.14704 0 1 cbr 210 ------- 0 0.0 3.0 112 112
r 0.14714 0 1 cbr 210 ------- 0 0.0 3.0 55 55
+ 0.14714 1 2 cbr 210 ------- 0 0.0 3.0 55 55
- 0.14714 1 2 cbr 210 ------- 0 0.0 3.0 55 55
r 0.14724 1 2 cbr 210 ------- 0 0.0 3.0 54 54
+ 0.14724 2 3 cbr 210 ------- 0 0.0 3.0 54 54
- 0.14724 2 3 cbr 210 ------- 0 0.0 3.0 54 54
r 0.14734 2 3 cbr 210 ------- 0 0.0 3.0 53 53
+ 0.14746 0 1 cbr 210 ------- 0 0.0 3.0 113 113
d 0.14746 0 1 cbr 210 ------- 0 0.0 3.0 113 113
- 0.14788 0 1 cbr 210 ------- 0 0.0 3.0 57 57
+ 0.14788 0 1 cbr 210 ------- 0 0.0 3.0 114 114
r 0.14798 0 1 cbr 210 ------- 0 0.0 3.0 56 56
+ 0.14798 1 2 cbr 210 ------- 0 0.0 3.0 56 56
- 0.14798 1 2 cbr 210 ------- 0 0.0 3.0 56 56
r 0.14808 1 2 cbr 210 ------- 0 0.0 3.0 55 55
+ 0.14808 2 3 cbr 210 ------- 0 0.0 3.0 55 55
- 0.14808 2 3 cbr 210 ------- 0 0.0 3.0 55 55
r 0.14818 2 3 cbr 210 ------- 0 0.0 3.0 54 54
+ 0.1483 0 1 cbr 210 ------- 0 0.0 3.0 115 115
d 0.1483 0 1 cbr 210 ------- 0 0.0 3.0 115 115
- 0.14872 0 1 cbr 210 ------- 0 0.0 3.0 58 58
+ 0.14872 0 1 cbr 210 ------- 0 0.0 3.0 116 116
r 0.14882 0 1 cbr 210 ------- 0 0.0 3.0 57 57
+ 0.14882 1 2 cbr 210 ------- 0 0.0 3.0 57 57
- 0.14882 1 2 cbr 210 ------- 0 0.0 3.0 57 57
r 0.14892 1 2 cbr 210 ------- 0 0.0 3.0 56 56
+ 0.14892 2 3 cbr 210 ------- 0 0.0 3.0 56 56
- 0.14892 2 3 cbr 210 ------- 0 0.0 3.0 56 56
r 0.14902 2 3 cbr 210 ------- 0 0.0 3.0 55 55
+ 0.14914 0 1 cbr 210 ------- 0 0.0 3.0 117 117
d 0.14914 0 1 cbr 210 ------- 0 0.0 3.0 117 117
- 0.14956 0 1 cbr 210 ------- 0 0.0 3.0 59 59
+ 0.14956 0 1 cbr 210 ------- 0 0.0 3.0 118 118
r 0.14966 0 1 cbr 210 ------- 0 0.0 3.0 58 58
+ 0.14966 1 2 cbr 210 ------- 0 0.0 3.0 58 58
- 0.14966 1 2 cbr 210 ------- 0 0.0 3.0 58 58
r 0.14976 1 2 cbr 210 ------- 0 0.0 3.0 57 57
+ 0.14976 2 3 cbr 210 ------- 0 0.0 3.0 57 57
- 0.14976 2 3 cbr 210 ------- 0 0.0 3.0 57 57
r 0.14986 2 3 cbr 210 ------- 0 0.0 3.0 56 56
+ 0.14998 0 1 cbr 210 ------- 0 0.0 3.0 119 119
d 0.14998 0 1 cbr 210 ------- 0 0.0 3.0 119 119
- 0.1504 0 1 cbr 210 ------- 0 0.0 3.0 60 60
+ 0.1504 0 1 cbr 210 ------- 0 0.0 3.0 120 120
r 0.1505 0 1 cbr 210 ------- 0 0.0 3.0 59 59
+ 0.1505 1 2 cbr 210 ------- 0 0.0 3.0 59 59
- 0.1505 1 2 cbr 210 ------- 0 0.0 3.0 59 59
r 0.1506 1 2 cbr 210 ------- 0 0.0 3.0 58 58
+ 0.1506 2 3 cbr 210 ------- 0 0.0 3.0 58 58
- 0.1506 2 3 cbr 210 ------- 0 0.0 3.0 58 58
r 0.1507 2 3 cbr 210 ------- 0 0.0 3.0 57 57
+ 0.15082 0 1 cbr 210 ------- 0 0.0 3.0 121 121
d 0.15082 0 1 cbr 210 ------- 0 0.0 3.0 121 121
- 0.15124 0 1 cbr 210 ------- 0 0.0 3.0 61 61
+ 0.15124 0 1 cbr 210 ------- 0 0.0 3.0 122 122
r 0.15134 0 1 cbr 210 ------- 0 0.0 3.0 60 60
+ 0.15134 1 2 cbr 210 ------- 0 0.0 3.0 60 60
- 0.15134 1 2 cbr 210 ------- 0 0.0 3.0 60 60
r 0.15144 1 2 cbr 210 ------- 0 0.0 3.0 59 59
+ 0.15144 2 3 cbr 210 ------- 0 0.0 3.0 59 59
- 0.15144 2 3 cbr 210 ------- 0 0.0 3.0 59 59
r 0.15154 2 3 cbr 210 ------- 0 0.0 3.0 58 58
+ 0.15166 0 1 cbr 210 ------- 0 0.0 3.0 123 123
d 0.15166 0 1 cbr 210 ------- 0 0.0 3.0 123 123
- 0.15208 0 1 cbr 210 ------- 0 0.0 3.0 62 62
+ 0.15208 0 1 cbr 210 ------- 0 0.0 3.0 124 124
r 0.15218 0 1 cbr 210 ------- 0 0.0 3.0 61 61
+ 0.15218 1 2 cbr 210 ------- 0 0.0 3.0 61 61
- 0.15218 1 2 cbr 210 ------- 0 0.0 3.0 61 61
r 0.15228 1 2 cbr 210 ------- 0 0.0 3.0 60 60
+ 0.15228 2 3 cbr 210 ------- 0 0.0 3.0 60 60
- 0.15228 2 3 cbr 210 ------- 0 0.0 3.0 60 60
r 0.15238 2 3 cbr 210 ------- 0 0.0 3.0 59 59
+ 0.1525 0 1 cbr 210 ------- 0 0.0 3.0 125 125
d 0.1525 0 1 cbr 210 ------- 0 0.0 3.0 125 125
- 0.15292 0 1 cbr 210 ------- 0 0.0 3.0 63 63
+ 0.15292 0 1 cbr 210 ------- 0 0.0 3.0 126 126
r 0.15302 0 1 cbr 210 ------- 0 0.0 3.0 62 62
+ 0.15302 1 2 cbr 210 ------- 0 0.0 3.0 62 62
- 0.15302 1 2 cbr 210 ------- 0 0.0 3.0 62 62
r 0.15312 1 2 cbr 210 ------- 0 0.0 3.0 61 61
+ 0.15312 2 3 cbr 210 ------- 0 0.0 3.0 61 61
- 0.15312 2 3 cbr 210 ------- 0 0.0 3.0 61 61
r 0.15322 2 3 cbr 210 ------- 0 0.0 3.0 60 60
+ 0.15334 0 1 cbr 210 ------- 0 0.0 3.0 127 127
d 0.15334 0 1 cbr 210 ------- 0 0.0 3.0 127 127
- 0.15376 0 1 cbr 210 ------- 0 0.0 3.0 64 64
+ 0.15376 0 1 cbr 210 ------- 0 0.0 3.0 128 128
r 0.15386 0 1 cbr 210 ------- 0 0.0 3.0 63 63
+ 0.15386 1 2 cbr 210 ------- 0 0.0 3.0 63 63
- 0.15386 1 2 cbr 210 ------- 0 0.0 3.0 63 63
r 0.15396 1 2 cbr 210 ------- 0 0.0 3.0 62 62
+ 0.15396 2 3 cbr 210 ------- 0 0.0 3.0 62 62
- 0.15396 2 3 cbr 210 ------- 0 0.0 3.0 62 62
r 0.15406 2 3 cbr 210 ------- 0 0.0 3.0 61 61
+ 0.15418 0 1 cbr 210 ------- 0 0.0 3.0 129 129
d 0.15418 0 1 cbr 210 ------- 0 0.0 3.0 129 129
- 0.1546 0 1 cbr 210 ------- 0 0.0 3.0 65 65
+ 0.1546 0 1 cbr 210 ------- 0 0.0 3.0 130 130
r 0.1547 0 1 cbr 210 ------- 0 0.0 3.0 64 64